8
Lattice="20.0 0.0 0.0 0.0 20.0 0.0 0.0 0.0 20.0" Properties=species:S:1:pos:R:3:forces:R:3 distance=2.0 config_type=S8-dissociation date=13.10.2021 castep_dict="_JSON {\"polarised\": \"False\", \"version\": \"20.11\", \"cluster\": \"Archer2\", \"pp\": \"S_C19_PBESOL_OTF-FromArcher2-Castep20P11.usp\", \"kpoints_list\": \"0 0 0 1\", \"Ecut\": \"300\", \"smearing_width\": \"0.04\", \"perc_extra_bands\": \"100\", \"xc\": \"pbesol\", \"mixing_scheme\": \"pulay\"}" energy=-2416.433984424 pbc="T T T"
S        9.59780000       9.27504000      14.22352000       0.15865000      -0.03748000      -0.01278000
S        8.66222000      10.68918000      13.36626000      -0.03737000       0.14075000      -0.04728000
S       13.69808000       8.44060000      12.02204000      -0.14834000      -0.02688000       0.01540000
S        9.57336000      15.40906000      13.24238000      -0.02099000      -0.12163000       0.07391000
S       15.42528000       9.17902000      12.30756000       0.04535000       0.17633000      -0.01132000
S       10.72026000      15.87054000      11.79958000       0.15401000       0.00249000      -0.09476000
S       15.67112000      13.41266000      10.52674000       0.00686000      -0.17817000      -0.01328000
S       15.26534000      15.10972000      11.27862000      -0.15816000       0.04458000       0.09012000
8
Lattice="20.0 0.0 0.0 0.0 20.0 0.0 0.0 0.0 20.0" Properties=species:S:1:pos:R:3:forces:R:3 distance=0.0 config_type=S8-dissociation date=13.10.2021 castep_dict="_JSON {\"polarised\": \"False\", \"version\": \"20.11\", \"cluster\": \"Archer2\", \"pp\": \"S_C19_PBESOL_OTF-FromArcher2-Castep20P11.usp\", \"kpoints_list\": \"0 0 0 1\", \"Ecut\": \"300\", \"smearing_width\": \"0.04\", \"perc_extra_bands\": \"100\", \"xc\": \"pbesol\", \"mixing_scheme\": \"pulay\"}" energy=-2423.807466392 pbc="T T T"
S       10.73736000      10.51244000      13.20720000       0.08965000       0.04793000      -0.21145000
S        9.72300000      12.04566000      12.27774000       0.20007000       0.07244000       0.08963000
S       12.06484000       9.65226000      11.86734000      -0.01654000       0.17504000       0.14926000
S       10.65208000      13.84792000      12.70898000       0.01369000      -0.18289000      -0.14973000
S       13.93750000      10.45288000      12.17690000      -0.10137000       0.14249000      -0.10303000
S       11.89556000      14.34828000      11.14468000       0.09729000      -0.13564000       0.11247000
S       14.27642000      11.95650000      10.79420000      -0.14575000      -0.03210000       0.09152000
S       13.83648000      13.79648000      11.60938000      -0.13704000      -0.08726000       0.02133000
8
Lattice="20.0 0.0 0.0 0.0 20.0 0.0 0.0 0.0 20.0" Properties=species:S:1:pos:R:3:forces:R:3 distance=0.05 config_type=S8-dissociation date=13.10.2021 castep_dict="_JSON {\"polarised\": \"False\", \"version\": \"20.11\", \"cluster\": \"Archer2\", \"pp\": \"S_C19_PBESOL_OTF-FromArcher2-Castep20P11.usp\", \"kpoints_list\": \"0 0 0 1\", \"Ecut\": \"300\", \"smearing_width\": \"0.04\", \"perc_extra_bands\": \"100\", \"xc\": \"pbesol\", \"mixing_scheme\": \"pulay\"}" energy=-2423.681455918 pbc="T T T"
S       10.70882000      10.48158000      13.23256000       0.37469000       0.12469000      -0.56842000
S        9.69652000      12.01166000      12.30500000       0.50963000       0.30833000       0.20287000
S       12.10578000       9.62202000      11.87122000      -0.13929000       0.44559000       0.39771000
S       10.62518000      13.88698000      12.72224000       0.03988000      -0.60349000      -0.34967000
S       13.97460000      10.42098000      12.18014000      -0.28148000       0.45407000      -0.34365000
S       11.86610000      14.38630000      11.16114000       0.36053000      -0.34366000       0.30805000
S       14.31126000      11.99300000      10.78754000      -0.30938000      -0.17472000       0.40460000
S       13.87222000      13.82922000      11.60108000      -0.55458000      -0.21081000      -0.05149000
8
Lattice="20.0 0.0 0.0 0.0 20.0 0.0 0.0 0.0 20.0" Properties=species:S:1:pos:R:3:forces:R:3 distance=0.1 config_type=S8-dissociation date=13.10.2021 castep_dict="_JSON {\"polarised\": \"False\", \"version\": \"20.11\", \"cluster\": \"Archer2\", \"pp\": \"S_C19_PBESOL_OTF-FromArcher2-Castep20P11.usp\", \"kpoints_list\": \"0 0 0 1\", \"Ecut\": \"300\", \"smearing_width\": \"0.04\", \"perc_extra_bands\": \"100\", \"xc\": \"pbesol\", \"mixing_scheme\": \"pulay\"}" energy=-2423.451142684 pbc="T T T"
S       10.68028000      10.45072000      13.25792000       0.53704000       0.24964000      -0.82129000
S        9.67006000      11.97768000      12.33226000       0.73309000       0.40033000       0.29132000
S       12.14670000       9.59176000      11.87510000      -0.15967000       0.64443000       0.55221000
S       10.59826000      13.92604000      12.73550000       0.13457000      -0.85657000      -0.52085000
S       14.01168000      10.38910000      12.18340000      -0.47958000       0.64537000      -0.49277000
S       11.83666000      14.42434000      11.17758000       0.47911000      -0.50101000       0.47264000
S       14.34610000      12.02950000      10.78090000      -0.42500000      -0.20820000       0.62123000
S       13.90796000      13.86196000      11.59276000      -0.81956000      -0.37400000      -0.10248000
8
Lattice="20.0 0.0 0.0 0.0 20.0 0.0 0.0 0.0 20.0" Properties=species:S:1:pos:R:3:forces:R:3 distance=0.15 config_type=S8-dissociation date=13.10.2021 castep_dict="_JSON {\"polarised\": \"False\", \"version\": \"20.11\", \"cluster\": \"Archer2\", \"pp\": \"S_C19_PBESOL_OTF-FromArcher2-Castep20P11.usp\", \"kpoints_list\": \"0 0 0 1\", \"Ecut\": \"300\", \"smearing_width\": \"0.04\", \"perc_extra_bands\": \"100\", \"xc\": \"pbesol\", \"mixing_scheme\": \"pulay\"}" energy=-2423.153319452 pbc="T T T"
S       10.65174000      10.41986000      13.28328000       0.60651000       0.41429000      -0.99634000
S        9.64360000      11.94368000      12.35952000       0.89504000       0.38686000       0.36515000
S       12.18762000       9.56152000      11.87898000      -0.10275000       0.78613000       0.63862000
S       10.57136000      13.96508000      12.74874000       0.26788000      -0.99319000      -0.67183000
S       14.04878000      10.35722000      12.18664000      -0.68614000       0.74731000      -0.57608000
S       11.80722000      14.46236000      11.19404000       0.49189000      -0.61899000       0.61415000
S       14.38096000      12.06600000      10.77426000      -0.51143000      -0.16346000       0.76881000
S       13.94370000      13.89468000      11.58446000      -0.96101000      -0.55896000      -0.14248000
8
Lattice="20.0 0.0 0.0 0.0 20.0 0.0 0.0 0.0 20.0" Properties=species:S:1:pos:R:3:forces:R:3 distance=0.2 config_type=S8-dissociation date=13.10.2021 castep_dict="_JSON {\"polarised\": \"False\", \"version\": \"20.11\", \"cluster\": \"Archer2\", \"pp\": \"S_C19_PBESOL_OTF-FromArcher2-Castep20P11.usp\", \"kpoints_list\": \"0 0 0 1\", \"Ecut\": \"300\", \"smearing_width\": \"0.04\", \"perc_extra_bands\": \"100\", \"xc\": \"pbesol\", \"mixing_scheme\": \"pulay\"}" energy=-2422.814694093 pbc="T T T"
S       10.62320000      10.38902000      13.30864000       0.61155000       0.59386000      -1.11687000
S        9.61712000      11.90970000      12.38678000       1.01498000       0.30410000       0.42425000
S       12.22856000       9.53126000      11.88288000       0.00268000       0.89015000       0.67971000
S       10.54446000      14.00414000      12.76200000       0.42077000      -1.04525000      -0.80427000
S       14.08588000      10.32532000      12.18990000      -0.89130000       0.78480000      -0.61366000
S       11.77776000      14.50040000      11.21050000       0.43731000      -0.70988000       0.73947000
S       14.41580000      12.10250000      10.76762000      -0.58296000      -0.06700000       0.86759000
S       13.97946000      13.92742000      11.57614000      -1.01303000      -0.75078000      -0.17622000
8
Lattice="20.0 0.0 0.0 0.0 20.0 0.0 0.0 0.0 20.0" Properties=species:S:1:pos:R:3:forces:R:3 distance=0.25 config_type=S8-dissociation date=13.10.2021 castep_dict="_JSON {\"polarised\": \"False\", \"version\": \"20.11\", \"cluster\": \"Archer2\", \"pp\": \"S_C19_PBESOL_OTF-FromArcher2-Castep20P11.usp\", \"kpoints_list\": \"0 0 0 1\", \"Ecut\": \"300\", \"smearing_width\": \"0.04\", \"perc_extra_bands\": \"100\", \"xc\": \"pbesol\", \"mixing_scheme\": \"pulay\"}" energy=-2422.454543154 pbc="T T T"
S       10.59466000      10.35816000      13.33400000       0.57371000       0.77028000      -1.19851000
S        9.59066000      11.87570000      12.41404000       1.10465000       0.17956000       0.47266000
S       12.26948000       9.50102000      11.88676000       0.13542000       0.96236000       0.69219000
S       10.51756000      14.04320000      12.77526000       0.57856000      -1.04492000      -0.92055000
S       14.12298000      10.29344000      12.19314000      -1.08148000       0.77088000      -0.62281000
S       11.74832000      14.53844000      11.22694000       0.34090000      -0.76448000       0.85176000
S       14.45064000      12.13900000      10.76098000      -0.64232000       0.06149000       0.93244000
S       14.01520000      13.96016000      11.56784000      -1.00944000      -0.93517000      -0.20717000
8
Lattice="20.0 0.0 0.0 0.0 20.0 0.0 0.0 0.0 20.0" Properties=species:S:1:pos:R:3:forces:R:3 distance=0.3 config_type=S8-dissociation date=13.10.2021 castep_dict="_JSON {\"polarised\": \"False\", \"version\": \"20.11\", \"cluster\": \"Archer2\", \"pp\": \"S_C19_PBESOL_OTF-FromArcher2-Castep20P11.usp\", \"kpoints_list\": \"0 0 0 1\", \"Ecut\": \"300\", \"smearing_width\": \"0.04\", \"perc_extra_bands\": \"100\", \"xc\": \"pbesol\", \"mixing_scheme\": \"pulay\"}" energy=-2422.087839544 pbc="T T T"
S       10.56612000      10.32730000      13.35936000       0.51121000       0.93752000      -1.25107000
S        9.56420000      11.84172000      12.44130000       1.16982000       0.03336000       0.51604000
S       12.31040000       9.47076000      11.89064000       0.28388000       1.00663000       0.68689000
S       10.49066000      14.08224000      12.78852000       0.72549000      -1.00696000      -1.02421000
S       14.16008000      10.26156000      12.19640000      -1.25198000       0.72258000      -0.61561000
S       11.71888000      14.57646000      11.24340000       0.22366000      -0.79854000       0.95203000
S       14.48548000      12.17548000      10.75432000      -0.68955000       0.20696000       0.97361000
S       14.05094000      13.99290000      11.55952000      -0.97253000      -1.10155000      -0.23768000
8
Lattice="20.0 0.0 0.0 0.0 20.0 0.0 0.0 0.0 20.0" Properties=species:S:1:pos:R:3:forces:R:3 distance=0.35 config_type=S8-dissociation date=13.10.2021 castep_dict="_JSON {\"polarised\": \"False\", \"version\": \"20.11\", \"cluster\": \"Archer2\", \"pp\": \"S_C19_PBESOL_OTF-FromArcher2-Castep20P11.usp\", \"kpoints_list\": \"0 0 0 1\", \"Ecut\": \"300\", \"smearing_width\": \"0.04\", \"perc_extra_bands\": \"100\", \"xc\": \"pbesol\", \"mixing_scheme\": \"pulay\"}" energy=-2421.724345354 pbc="T T T"
S       10.53758000      10.29644000      13.38472000       0.43445000       1.08454000      -1.28600000
S        9.53772000      11.80772000      12.46856000       1.21820000      -0.11321000       0.55787000
S       12.35134000       9.44052000      11.89452000       0.43249000       1.03769000       0.67104000
S       10.46374000      14.12130000      12.80176000       0.85160000      -0.94055000      -1.11500000
S       14.19718000      10.22966000      12.19966000      -1.40188000       0.65370000      -0.59940000
S       11.68944000      14.61450000      11.25986000       0.10152000      -0.82731000       1.04012000
S       14.52034000      12.21198000      10.74768000      -0.71682000       0.35484000       0.99942000
S       14.08668000      14.02564000      11.55122000      -0.91956000      -1.24971000      -0.26806000
8
Lattice="20.0 0.0 0.0 0.0 20.0 0.0 0.0 0.0 20.0" Properties=species:S:1:pos:R:3:forces:R:3 distance=0.4 config_type=S8-dissociation date=13.10.2021 castep_dict="_JSON {\"polarised\": \"False\", \"version\": \"20.11\", \"cluster\": \"Archer2\", \"pp\": \"S_C19_PBESOL_OTF-FromArcher2-Castep20P11.usp\", \"kpoints_list\": \"0 0 0 1\", \"Ecut\": \"300\", \"smearing_width\": \"0.04\", \"perc_extra_bands\": \"100\", \"xc\": \"pbesol\", \"mixing_scheme\": \"pulay\"}" energy=-2421.370773407 pbc="T T T"
S       10.50904000      10.26558000      13.41010000       0.34883000       1.20487000      -1.30798000
S        9.51126000      11.77374000      12.49582000       1.24984000      -0.24863000       0.59679000
S       12.39226000       9.41026000      11.89840000       0.57207000       1.05870000       0.64997000
S       10.43684000      14.16036000      12.81502000       0.95801000      -0.85820000      -1.19098000
S       14.23428000      10.19778000      12.20290000      -1.52865000       0.57490000      -0.57959000
S       11.65998000      14.65252000      11.27630000      -0.02087000      -0.84849000       1.11565000
S       14.55518000      12.24848000      10.74104000      -0.72336000       0.49553000       1.01461000
S       14.12242000      14.05838000      11.54290000      -0.85589000      -1.37866000      -0.29846000
8
Lattice="20.0 0.0 0.0 0.0 20.0 0.0 0.0 0.0 20.0" Properties=species:S:1:pos:R:3:forces:R:3 distance=0.45 config_type=S8-dissociation date=13.10.2021 castep_dict="_JSON {\"polarised\": \"False\", \"version\": \"20.11\", \"cluster\": \"Archer2\", \"pp\": \"S_C19_PBESOL_OTF-FromArcher2-Castep20P11.usp\", \"kpoints_list\": \"0 0 0 1\", \"Ecut\": \"300\", \"smearing_width\": \"0.04\", \"perc_extra_bands\": \"100\", \"xc\": \"pbesol\", \"mixing_scheme\": \"pulay\"}" energy=-2421.030821896 pbc="T T T"
S       10.48050000      10.23472000      13.43546000       0.26282000       1.30645000      -1.31702000
S        9.48480000      11.73974000      12.52308000       1.26480000      -0.37146000       0.63217000
S       12.43318000       9.38002000      11.90228000       0.69680000       1.07273000       0.62828000
S       10.40994000      14.19942000      12.82828000       1.04645000      -0.77961000      -1.25275000
S       14.27138000      10.16590000      12.20616000      -1.63422000       0.50047000      -0.56065000
S       11.63054000      14.69056000      11.29276000      -0.13182000      -0.86078000       1.17861000
S       14.59002000      12.28498000      10.73440000      -0.72367000       0.62124000       1.02167000
S       14.15818000      14.09112000      11.53458000      -0.78117000      -1.48903000      -0.33031000
8
Lattice="20.0 0.0 0.0 0.0 20.0 0.0 0.0 0.0 20.0" Properties=species:S:1:pos:R:3:forces:R:3 distance=0.5 config_type=S8-dissociation date=13.10.2021 castep_dict="_JSON {\"polarised\": \"False\", \"version\": \"20.11\", \"cluster\": \"Archer2\", \"pp\": \"S_C19_PBESOL_OTF-FromArcher2-Castep20P11.usp\", \"kpoints_list\": \"0 0 0 1\", \"Ecut\": \"300\", \"smearing_width\": \"0.04\", \"perc_extra_bands\": \"100\", \"xc\": \"pbesol\", \"mixing_scheme\": \"pulay\"}" energy=-2420.705874028 pbc="T T T"
S       10.45196000      10.20388000      13.46082000       0.18229000       1.38397000      -1.31550000
S        9.45832000      11.70576000      12.55034000       1.26990000      -0.48080000       0.66547000
S       12.47412000       9.34976000      11.90618000       0.80340000       1.08057000       0.60748000
S       10.38304000      14.23846000      12.84154000       1.11972000      -0.70793000      -1.30414000
S       14.30848000      10.13400000      12.20940000      -1.71689000       0.43124000      -0.54374000
S       11.60110000      14.72858000      11.30920000      -0.22632000      -0.85517000       1.22883000
S       14.62486000      12.32148000      10.72774000      -0.72572000       0.72696000       1.02197000
S       14.19392000      14.12384000      11.52628000      -0.70638000      -1.57884000      -0.36037000
8
Lattice="20.0 0.0 0.0 0.0 20.0 0.0 0.0 0.0 20.0" Properties=species:S:1:pos:R:3:forces:R:3 distance=0.505 config_type=S8-dissociation date=13.10.2021 castep_dict="_JSON {\"polarised\": \"False\", \"version\": \"20.11\", \"cluster\": \"Archer2\", \"pp\": \"S_C19_PBESOL_OTF-FromArcher2-Castep20P11.usp\", \"kpoints_list\": \"0 0 0 1\", \"Ecut\": \"300\", \"smearing_width\": \"0.04\", \"perc_extra_bands\": \"100\", \"xc\": \"pbesol\", \"mixing_scheme\": \"pulay\"}" energy=-2420.67423888 pbc="T T T"
S       10.44910000      10.20078000      13.46334000       0.17425000       1.39086000      -1.31471000
S        9.45568000      11.70236000      12.55308000       1.26999000      -0.49137000       0.66815000
S       12.47820000       9.34674000      11.90656000       0.81277000       1.08100000       0.60589000
S       10.38034000      14.24236000      12.84286000       1.12590000      -0.70156000      -1.30856000
S       14.31220000      10.13082000      12.20972000      -1.72319000       0.42477000      -0.54203000
S       11.59816000      14.73240000      11.31086000      -0.23471000      -0.85367000       1.23321000
S       14.62836000      12.32512000      10.72708000      -0.72568000       0.73694000       1.02134000
S       14.19750000      14.12712000      11.52544000      -0.69933000      -1.58699000      -0.36329000
8
Lattice="20.0 0.0 0.0 0.0 20.0 0.0 0.0 0.0 20.0" Properties=species:S:1:pos:R:3:forces:R:3 distance=0.51 config_type=S8-dissociation date=13.10.2021 castep_dict="_JSON {\"polarised\": \"False\", \"version\": \"20.11\", \"cluster\": \"Archer2\", \"pp\": \"S_C19_PBESOL_OTF-FromArcher2-Castep20P11.usp\", \"kpoints_list\": \"0 0 0 1\", \"Ecut\": \"300\", \"smearing_width\": \"0.04\", \"perc_extra_bands\": \"100\", \"xc\": \"pbesol\", \"mixing_scheme\": \"pulay\"}" energy=-2420.642754726 pbc="T T T"
S       10.44624000      10.19770000      13.46588000       0.16657000       1.39706000      -1.31389000
S        9.45302000      11.69896000      12.55580000       1.27009000      -0.50132000       0.67030000
S       12.48230000       9.34370000      11.90694000       0.82235000       1.08110000       0.60387000
S       10.37766000      14.24628000      12.84418000       1.13217000      -0.69532000      -1.31280000
S       14.31590000      10.12762000      12.21006000      -1.72987000       0.41842000      -0.54048000
S       11.59520000      14.73620000      11.31250000      -0.24318000      -0.85205000       1.23739000
S       14.63184000      12.32878000      10.72642000      -0.72615000       0.74649000       1.02150000
S       14.20106000      14.13040000      11.52462000      -0.69198000      -1.59437000      -0.36590000
8
Lattice="20.0 0.0 0.0 0.0 20.0 0.0 0.0 0.0 20.0" Properties=species:S:1:pos:R:3:forces:R:3 distance=0.515 config_type=S8-dissociation date=13.10.2021 castep_dict="_JSON {\"polarised\": \"False\", \"version\": \"20.11\", \"cluster\": \"Archer2\", \"pp\": \"S_C19_PBESOL_OTF-FromArcher2-Castep20P11.usp\", \"kpoints_list\": \"0 0 0 1\", \"Ecut\": \"300\", \"smearing_width\": \"0.04\", \"perc_extra_bands\": \"100\", \"xc\": \"pbesol\", \"mixing_scheme\": \"pulay\"}" energy=-2420.611432661 pbc="T T T"
S       10.44340000      10.19462000      13.46842000       0.15919000       1.40280000      -1.31299000
S        9.45038000      11.69556000      12.55852000       1.27015000      -0.51094000       0.67265000
S       12.48640000       9.34068000      11.90734000       0.83171000       1.08158000       0.60221000
S       10.37496000      14.25018000      12.84550000       1.13833000      -0.68878000      -1.31698000
S       14.31962000      10.12444000      12.21038000      -1.73584000       0.41185000      -0.53860000
S       11.59226000      14.74000000      11.31414000      -0.25180000      -0.85040000       1.24151000
S       14.63532000      12.33242000      10.72576000      -0.72621000       0.75575000       1.02087000
S       14.20464000      14.13366000      11.52378000      -0.68553000      -1.60185000      -0.36867000
8
Lattice="20.0 0.0 0.0 0.0 20.0 0.0 0.0 0.0 20.0" Properties=species:S:1:pos:R:3:forces:R:3 distance=0.52 config_type=S8-dissociation date=13.10.2021 castep_dict="_JSON {\"polarised\": \"False\", \"version\": \"20.11\", \"cluster\": \"Archer2\", \"pp\": \"S_C19_PBESOL_OTF-FromArcher2-Castep20P11.usp\", \"kpoints_list\": \"0 0 0 1\", \"Ecut\": \"300\", \"smearing_width\": \"0.04\", \"perc_extra_bands\": \"100\", \"xc\": \"pbesol\", \"mixing_scheme\": \"pulay\"}" energy=-2420.580257156 pbc="T T T"
S       10.44054000      10.19152000      13.47096000       0.15170000       1.40839000      -1.31203000
S        9.44774000      11.69216000      12.56124000       1.27019000      -0.52034000       0.67497000
S       12.49048000       9.33766000      11.90772000       0.84117000       1.08155000       0.60003000
S       10.37228000      14.25408000      12.84684000       1.14448000      -0.68268000      -1.32122000
S       14.32332000      10.12124000      12.21070000      -1.74213000       0.40543000      -0.53695000
S       11.58932000      14.74380000      11.31580000      -0.26020000      -0.84862000       1.24534000
S       14.63880000      12.33608000      10.72508000      -0.72639000       0.76477000       1.02104000
S       14.20822000      14.13694000      11.52296000      -0.67883000      -1.60850000      -0.37117000
8
Lattice="20.0 0.0 0.0 0.0 20.0 0.0 0.0 0.0 20.0" Properties=species:S:1:pos:R:3:forces:R:3 distance=0.525 config_type=S8-dissociation date=13.10.2021 castep_dict="_JSON {\"polarised\": \"False\", \"version\": \"20.11\", \"cluster\": \"Archer2\", \"pp\": \"S_C19_PBESOL_OTF-FromArcher2-Castep20P11.usp\", \"kpoints_list\": \"0 0 0 1\", \"Ecut\": \"300\", \"smearing_width\": \"0.04\", \"perc_extra_bands\": \"100\", \"xc\": \"pbesol\", \"mixing_scheme\": \"pulay\"}" energy=-2420.549241453 pbc="T T T"
S       10.43768000      10.18844000      13.47350000       0.14404000       1.41449000      -1.31108000
S        9.44508000      11.68876000      12.56398000       1.27002000      -0.53010000       0.67700000
S       12.49458000       9.33464000      11.90812000       0.85009000       1.08163000       0.59850000
S       10.36958000      14.25800000      12.84816000       1.15001000      -0.67684000      -1.32494000
S       14.32704000      10.11806000      12.21102000      -1.74759000       0.39935000      -0.53541000
S       11.58638000      14.74760000      11.31744000      -0.26789000      -0.84709000       1.24922000
S       14.64228000      12.33972000      10.72442000      -0.72661000       0.77404000       1.02044000
S       14.21178000      14.14022000      11.52212000      -0.67207000      -1.61548000      -0.37373000
8
Lattice="20.0 0.0 0.0 0.0 20.0 0.0 0.0 0.0 20.0" Properties=species:S:1:pos:R:3:forces:R:3 distance=0.53 config_type=S8-dissociation date=13.10.2021 castep_dict="_JSON {\"polarised\": \"False\", \"version\": \"20.11\", \"cluster\": \"Archer2\", \"pp\": \"S_C19_PBESOL_OTF-FromArcher2-Castep20P11.usp\", \"kpoints_list\": \"0 0 0 1\", \"Ecut\": \"300\", \"smearing_width\": \"0.04\", \"perc_extra_bands\": \"100\", \"xc\": \"pbesol\", \"mixing_scheme\": \"pulay\"}" energy=-2420.518382215 pbc="T T T"
S       10.43484000      10.18536000      13.47602000       0.13673000       1.42024000      -1.30988000
S        9.44244000      11.68536000      12.56670000       1.26998000      -0.53939000       0.67910000
S       12.49866000       9.33160000      11.90850000       0.85895000       1.08127000       0.59660000
S       10.36690000      14.26190000      12.84948000       1.15598000      -0.67086000      -1.32890000
S       14.33074000      10.11488000      12.21136000      -1.75338000       0.39298000      -0.53382000
S       11.58342000      14.75140000      11.31908000      -0.27571000      -0.84533000       1.25279000
S       14.64578000      12.34338000      10.72376000      -0.72684000       0.78291000       1.02028000
S       14.21536000      14.14350000      11.52130000      -0.66571000      -1.62181000      -0.37619000
8
Lattice="20.0 0.0 0.0 0.0 20.0 0.0 0.0 0.0 20.0" Properties=species:S:1:pos:R:3:forces:R:3 distance=0.535 config_type=S8-dissociation date=13.10.2021 castep_dict="_JSON {\"polarised\": \"False\", \"version\": \"20.11\", \"cluster\": \"Archer2\", \"pp\": \"S_C19_PBESOL_OTF-FromArcher2-Castep20P11.usp\", \"kpoints_list\": \"0 0 0 1\", \"Ecut\": \"300\", \"smearing_width\": \"0.04\", \"perc_extra_bands\": \"100\", \"xc\": \"pbesol\", \"mixing_scheme\": \"pulay\"}" energy=-2420.48767512 pbc="T T T"
S       10.43198000      10.18228000      13.47856000       0.12974000       1.42536000      -1.30896000
S        9.43980000      11.68196000      12.56942000       1.26942000      -0.54792000       0.68087000
S       12.50276000       9.32858000      11.90888000       0.86832000       1.08106000       0.59478000
S       10.36420000      14.26580000      12.85080000       1.16214000      -0.66445000      -1.33268000
S       14.33446000      10.11168000      12.21168000      -1.75899000       0.38637000      -0.53184000
S       11.58048000      14.75522000      11.32072000      -0.28382000      -0.84366000       1.25674000
S       14.64926000      12.34702000      10.72310000      -0.72663000       0.79096000       1.01983000
S       14.21894000      14.14676000      11.52046000      -0.66019000      -1.62773000      -0.37874000
8
Lattice="20.0 0.0 0.0 0.0 20.0 0.0 0.0 0.0 20.0" Properties=species:S:1:pos:R:3:forces:R:3 distance=0.54 config_type=S8-dissociation date=13.10.2021 castep_dict="_JSON {\"polarised\": \"False\", \"version\": \"20.11\", \"cluster\": \"Archer2\", \"pp\": \"S_C19_PBESOL_OTF-FromArcher2-Castep20P11.usp\", \"kpoints_list\": \"0 0 0 1\", \"Ecut\": \"300\", \"smearing_width\": \"0.04\", \"perc_extra_bands\": \"100\", \"xc\": \"pbesol\", \"mixing_scheme\": \"pulay\"}" energy=-2420.457119352 pbc="T T T"
S       10.42912000      10.17918000      13.48110000       0.12225000       1.43080000      -1.30791000
S        9.43714000      11.67856000      12.57216000       1.26916000      -0.55712000       0.68287000
S       12.50686000       9.32556000      11.90928000       0.87665000       1.08066000       0.59319000
S       10.36152000      14.26970000      12.85214000       1.16729000      -0.65895000      -1.33626000
S       14.33816000      10.10850000      12.21200000      -1.76396000       0.38036000      -0.53023000
S       11.57754000      14.75902000      11.32238000      -0.29104000      -0.84176000       1.26022000
S       14.65274000      12.35068000      10.72244000      -0.72668000       0.80003000       1.01927000
S       14.22252000      14.15004000      11.51962000      -0.65366000      -1.63401000      -0.38115000
8
Lattice="20.0 0.0 0.0 0.0 20.0 0.0 0.0 0.0 20.0" Properties=species:S:1:pos:R:3:forces:R:3 distance=0.545 config_type=S8-dissociation date=13.10.2021 castep_dict="_JSON {\"polarised\": \"False\", \"version\": \"20.11\", \"cluster\": \"Archer2\", \"pp\": \"S_C19_PBESOL_OTF-FromArcher2-Castep20P11.usp\", \"kpoints_list\": \"0 0 0 1\", \"Ecut\": \"300\", \"smearing_width\": \"0.04\", \"perc_extra_bands\": \"100\", \"xc\": \"pbesol\", \"mixing_scheme\": \"pulay\"}" energy=-2420.426720403 pbc="T T T"
S       10.42626000      10.17610000      13.48364000       0.11538000       1.43582000      -1.30704000
S        9.43450000      11.67516000      12.57488000       1.26884000      -0.56584000       0.68504000
S       12.51094000       9.32254000      11.90966000       0.88537000       1.08016000       0.59115000
S       10.35882000      14.27362000      12.85346000       1.17241000      -0.65275000      -1.33966000
S       14.34188000      10.10530000      12.21232000      -1.76867000       0.37401000      -0.52838000
S       11.57460000      14.76282000      11.32402000      -0.29861000      -0.83985000       1.26371000
S       14.65622000      12.35432000      10.72176000      -0.72680000       0.80814000       1.01895000
S       14.22608000      14.15332000      11.51880000      -0.64793000      -1.63969000      -0.38376000
8
Lattice="20.0 0.0 0.0 0.0 20.0 0.0 0.0 0.0 20.0" Properties=species:S:1:pos:R:3:forces:R:3 distance=0.55 config_type=S8-dissociation date=13.10.2021 castep_dict="_JSON {\"polarised\": \"False\", \"version\": \"20.11\", \"cluster\": \"Archer2\", \"pp\": \"S_C19_PBESOL_OTF-FromArcher2-Castep20P11.usp\", \"kpoints_list\": \"0 0 0 1\", \"Ecut\": \"300\", \"smearing_width\": \"0.04\", \"perc_extra_bands\": \"100\", \"xc\": \"pbesol\", \"mixing_scheme\": \"pulay\"}" energy=-2420.396482957 pbc="T T T"
S       10.42342000      10.17302000      13.48618000       0.10813000       1.44067000      -1.30594000
S        9.43186000      11.67176000      12.57760000       1.26831000      -0.57481000       0.68683000
S       12.51504000       9.31950000      11.91006000       0.89350000       1.07975000       0.58975000
S       10.35614000      14.27752000      12.85478000       1.17721000      -0.64701000      -1.34309000
S       14.34558000      10.10212000      12.21266000      -1.77292000       0.36821000      -0.52682000
S       11.57164000      14.76662000      11.32566000      -0.30569000      -0.83813000       1.26697000
S       14.65972000      12.35798000      10.72110000      -0.72702000       0.81664000       1.01831000
S       14.22966000      14.15658000      11.51796000      -0.64151000      -1.64531000      -0.38601000
8